3
Properties=species:S:1:pos:R:3:forces:R:3 total_energy=0.0006674351542428057 toy_synthetic=T toy_index=0 energy=0.0006674351542428057 pbc="F F F"
O        0.00000923       0.00224059      -0.00205603      -0.02884541       0.02837978       0.00023151
H        0.93613520      -0.01136677      -0.02479116       0.02037393       0.00093754      -0.00051551
H       -0.23749641       0.96050538      -0.01230516       0.00847148      -0.02931732       0.00028400
3
Properties=species:S:1:pos:R:3:forces:R:3 total_energy=0.0009636536615980504 toy_synthetic=T toy_index=1 energy=0.0009636536615980504 pbc="F F F"
O       -0.00465356       0.00367382       0.00267665       0.01773473      -0.04149746       0.00062798
H        0.96103536      -0.02326170      -0.00073130      -0.00487632      -0.00194951       0.00005233
H       -0.22161742       0.89339464      -0.01144039      -0.01285841       0.04344697      -0.00068031
3
Properties=species:S:1:pos:R:3:forces:R:3 total_energy=5.133389011785477e-05 toy_synthetic=T toy_index=2 energy=5.133389011785477e-05 pbc="F F F"
O       -0.01425917      -0.00967153      -0.01381301       0.00869570       0.00043912       0.00015472
H        0.95252272      -0.03168616       0.00678161      -0.01054943       0.00156866      -0.00028836
H       -0.23508122       0.92232673      -0.06291899       0.00185373      -0.00200779       0.00013364
3
Properties=species:S:1:pos:R:3:forces:R:3 total_energy=0.00100920792971829 toy_synthetic=T toy_index=3 energy=0.00100920792971829 pbc="F F F"
O       -0.00404020      -0.00036376       0.00084982      -0.04133693       0.02867626       0.00030205
H        0.92014661      -0.01194383      -0.02446298       0.03220708       0.00086339      -0.00091948
H       -0.25922093       0.95352247      -0.02018837       0.00912985      -0.02953965       0.00061743
3
Properties=species:S:1:pos:R:3:forces:R:3 total_energy=5.760284565430126e-05 toy_synthetic=T toy_index=4 energy=5.760284565430126e-05 pbc="F F F"
O       -0.00024391       0.00663292      -0.00437700      -0.00341067       0.00305246       0.00011074
H        0.95560745       0.00276160       0.00159454      -0.00102297       0.00266945       0.00010943
H       -0.26962640       0.92890351       0.03397059       0.00443364      -0.00572191      -0.00022017
3
Properties=species:S:1:pos:R:3:forces:R:3 total_energy=3.5881718438013614e-05 toy_synthetic=T toy_index=5 energy=3.5881718438013614e-05 pbc="F F F"
O       -0.01160359       0.00644537       0.00089516      -0.00308699      -0.00077718      -0.00007132
H        0.94236324       0.05001041       0.01905649       0.00608174      -0.00189660       0.00007290
H       -0.26898222       0.92886291       0.01441724      -0.00299476       0.00267378      -0.00000159
3
Properties=species:S:1:pos:R:3:forces:R:3 total_energy=0.0003888096795374749 toy_synthetic=T toy_index=6 energy=0.0003888096795374749 pbc="F F F"
O       -0.00141587       0.00512183      -0.00049888       0.02338013      -0.01769525      -0.00038802
H        0.97508119       0.03596306      -0.01689156      -0.01566415      -0.00280618       0.00026352
H       -0.23392153       0.91541731       0.00318171      -0.00771599       0.02050143       0.00012450
3
Properties=species:S:1:pos:R:3:forces:R:3 total_energy=0.0008550025744320937 toy_synthetic=T toy_index=7 energy=0.0008550025744320937 pbc="F F F"
O       -0.00890396      -0.00434476      -0.00147147       0.02660255       0.02302603      -0.00215437
H        0.98086910       0.02863055      -0.03308819      -0.03668164       0.00208504       0.00097686
H       -0.25886606       0.94317259      -0.04981049       0.01007909      -0.02511107       0.00117751
3
Properties=species:S:1:pos:R:3:forces:R:3 total_energy=0.001143267201995208 toy_synthetic=T toy_index=8 energy=0.001143267201995208 pbc="F F F"
O       -0.00347377      -0.00072965       0.00942761       0.01182368       0.03613816      -0.00115458
H        0.97563510      -0.00818034      -0.00921440      -0.02831590       0.00606273       0.00038911
H       -0.24525489       0.96508824      -0.01070062       0.01649222      -0.04220089       0.00076547
3
Properties=species:S:1:pos:R:3:forces:R:3 total_energy=0.0005307686725026878 toy_synthetic=T toy_index=9 energy=0.0005307686725026878 pbc="F F F"
O       -0.00227760       0.00264442      -0.00090578      -0.00894115       0.02613493       0.00046969
H        0.95346789      -0.02785168      -0.00028804      -0.00413473       0.00508285       0.00008839
H       -0.25008953       0.95615319       0.01632721       0.01307587      -0.03121778      -0.00055809
3
Properties=species:S:1:pos:R:3:forces:R:3 total_energy=0.0007080632588310418 toy_synthetic=T toy_index=10 energy=0.0007080632588310418 pbc="F F F"
O       -0.00018108       0.00501286      -0.00254902       0.02336052       0.01112711      -0.00001659
H        0.98470316      -0.00013499       0.01458456      -0.03518462       0.00650396      -0.00084973
H       -0.27127233       0.93566700      -0.04220510       0.01182410      -0.01763106       0.00086632
3
Properties=species:S:1:pos:R:3:forces:R:3 total_energy=0.0002649731200365527 toy_synthetic=T toy_index=11 energy=0.0002649731200365527 pbc="F F F"
O       -0.01526497      -0.00228358      -0.00674946       0.01958928       0.00743485      -0.00017810
H        0.96250132       0.05611892      -0.02079308      -0.01888868      -0.00290626       0.00024199
H       -0.25459859       0.93213510       0.01232533      -0.00070059      -0.00452859      -0.00006389
