LAMMPS two-H integration probe

2 atoms
1 atom types

0.0 12.0 xlo xhi
0.0 12.0 ylo yhi
0.0 12.0 zlo zhi

Masses

1 1.008

Atoms # atomic

1 1 5.0 6.0 6.0
2 1 6.2 6.0 6.0
