ITEM: TIMESTEP
100
ITEM: NUMBER OF ATOMS
8
ITEM: BOX BOUNDS pp pp pp
0.0 12.0
0.0 12.0
0.0 12.0
ITEM: ATOMS id type x y z fx fy fz
1 1 4.00 6.00 6.00 9.00 0.00 0.00
2 1 5.54 6.00 6.00 0.10 0.00 0.00
3 3 3.37 6.90 6.00 0.00 0.00 0.00
4 3 3.37 5.55 6.78 0.00 0.00 0.00
5 3 3.37 5.55 5.22 0.00 0.00 0.00
6 3 6.17 6.90 6.00 0.00 0.00 0.00
7 3 6.17 5.55 6.78 0.00 0.00 0.00
8 3 6.17 5.55 5.22 0.00 0.00 0.00
